 Gaussian 16, Revision A.03,
 Gaussian 16:  ES64L-G16RevA.03 25-Dec-2016

 ----------------------------------------------------
 # B3LYP/6-31G(d,p) scrf=(pcm, solvent=dmso) nmr=giao
 ----------------------------------------------------

 --------------------
 paracetamol_DMSO_NMR
 --------------------
 Symbolic Z-matrix:
 Charge =  0 Multiplicity = 1

                         Standard orientation:
 ---------------------------------------------------------------------
 Center     Atomic      Atomic             Coordinates (Angstroms)
 Number     Number       Type             X           Y           Z
 ---------------------------------------------------------------------
      1          6           0        0.206688   -0.385951   -0.246413
      2          6           0       -0.322821    0.866713   -0.585414
      3          6           0       -0.659743   -1.385142    0.213948
      4          6           0       -1.681505    1.127061   -0.430948
      5          6           0       -2.024884   -1.139646    0.344533
      6          6           0       -2.540584    0.123895    0.032307
      7          7           0        1.587383   -0.686794   -0.411903
      8          6           0        2.698024   -0.015783    0.034658
      9          8           0        3.821858   -0.449771   -0.222659
     10          6           0        2.501541    1.251795    0.842000
     11          8           0       -3.865077    0.434101    0.151502
     12          1           0        0.326826    1.638485   -0.983176
     13          1           0       -0.261005   -2.361173    0.473588
     14          1           0       -2.091801    2.098412   -0.686378
     15          1           0       -2.686031   -1.925765    0.699461
     16          1           0        1.815402   -1.566324   -0.860924
     17          1           0        2.477181    2.120503    0.176088
     18          1           0        3.362977    1.360852    1.502299
     19          1           0        1.580356    1.247749    1.426995
     20          1           0       -4.350123   -0.337474    0.476593
 ---------------------------------------------------------------------

 SCF Done:  E(RB3LYP) =  -515.507806941     A.U. after   13 cycles

      1  C    Isotropic =    65.3335   Anisotropy =   128.0887

      2  C    Isotropic =    69.5894   Anisotropy =   153.8326

      3  C    Isotropic =    71.2948   Anisotropy =   145.5237

      4  C    Isotropic =    81.8054   Anisotropy =   136.5420

      5  C    Isotropic =    81.6242   Anisotropy =   126.5557

      6  C    Isotropic =    43.2187   Anisotropy =   132.8244

      7  N    Isotropic =   123.3346   Anisotropy =   103.8370

      8  C    Isotropic =    28.7886   Anisotropy =   111.1789

      9  O    Isotropic =   -44.8315   Anisotropy =   525.2988

     10  C    Isotropic =   172.1081   Anisotropy =    28.7043

     11  O    Isotropic =   225.8167   Anisotropy =    51.8803

     12  H    Isotropic =    24.5237   Anisotropy =     6.9412

     13  H    Isotropic =    24.6984   Anisotropy =     6.0803

     14  H    Isotropic =    24.8419   Anisotropy =     5.0298

     15  H    Isotropic =    24.9929   Anisotropy =     4.6632

     16  H    Isotropic =    25.3075   Anisotropy =     7.4243

     17  H    Isotropic =    29.5758   Anisotropy =     6.8730

     18  H    Isotropic =    30.1985   Anisotropy =     8.4479

     19  H    Isotropic =    29.7707   Anisotropy =     5.1648

     20  H    Isotropic =    27.3324   Anisotropy =    13.7502

 The electronic state is 1-A.
 Alpha  occ. eigenvalues --  -19.18200 -19.11481 -14.36654 -10.29448 -10.25575
 Alpha  occ. eigenvalues --  -10.23277 -10.19977 -10.19961 -10.19634 -10.19340
 Alpha  occ. eigenvalues --  -10.18737  -1.06210  -1.03362  -0.93201  -0.84802
 Alpha  occ. eigenvalues --   -0.75788  -0.74417  -0.73248  -0.63855  -0.61706
 Alpha  occ. eigenvalues --   -0.57947  -0.54912  -0.53072  -0.48413  -0.46949
 Alpha  occ. eigenvalues --   -0.45148  -0.44149  -0.42881  -0.41925  -0.41251
 Alpha  occ. eigenvalues --   -0.39909  -0.39765  -0.38429  -0.36755  -0.34570
 Alpha  occ. eigenvalues --   -0.34369  -0.27661  -0.26123  -0.25621  -0.21498
 Alpha virt. eigenvalues --   -0.01246  -0.00449   0.03404   0.08286   0.09225
 Alpha virt. eigenvalues --    0.10986   0.12061   0.14875   0.15558   0.16411
 Alpha virt. eigenvalues --    0.17040   0.18844   0.21408   0.22435   0.23276

 Mulliken charges:
               1
     1  C    0.246890
     2  C   -0.100134
     3  C   -0.113505
     4  C   -0.131044
     5  C   -0.149407
     6  C    0.326924
     7  N   -0.591076
     8  C    0.540694
     9  O   -0.558955
    10  C   -0.398762
    11  O   -0.577727
    12  H    0.113004
    13  H    0.114117
    14  H    0.109413
    15  H    0.114052
    16  H    0.282725
    17  H    0.153593
    18  H    0.138376
    19  H    0.136519
    20  H    0.344307
 Sum of Mulliken charges =  -0.00000

 Dipole moment (field-independent basis, Debye):
    X=             -5.0407    Y=             -0.9178    Z=              0.9804  Tot=              5.2165
 Quadrupole moment (field-independent basis, Debye-Ang):
   XX=            -77.8094   YY=            -55.4570   ZZ=            -63.6600
   XY=             11.1605   XZ=             -1.2558   YZ=             -1.3815

 Normal termination of Gaussian 16 at Sat Mar  6 10:18:17 2021.
